ITEM: TIMESTEP
150
ITEM: NUMBER OF ATOMS
108
ITEM: BOX BOUNDS pp pp pp
-2.6000000000000001e+00 2.6000000000000001e+00
-2.6000000000000001e+00 2.6000000000000001e+00
-2.6000000000000001e+00 2.6000000000000001e+00
ITEM: ATOMS id type x y z
7 1 -1.97271 -1.40362 -1.77257
40 1 -1.93291 -2.44983 -1.40806
18 1 -1.13354 -0.968165 -2.45728
42 1 -0.889758 -1.81328 -1.73948
36 1 0.297328 -2.04651 -1.96033
50 1 -0.0818246 -1.13365 -2.27565
66 1 0.0598718 -1.23763 -1.25661
23 1 2.5977 -2.23966 -2.27952
5 1 0.907243 -1.34032 -2.49348
74 1 1.48629 -2.36241 -2.0925
28 1 2.40733 -1.64262 -1.15666
53 1 1.16451 -1.48067 -1.4006
62 1 1.96321 -1.27831 -2.15653
22 1 -0.921435 -0.861678 -1.46066
38 1 -1.04135 0.315667 -1.31597
43 1 -2.52185 0.597426 -2.05749
88 1 -1.83077 -0.328973 -1.79993
17 1 -2.57475 -0.431743 -2.53367
52 1 -0.482802 -0.155576 -2.15796
72 1 0.773643 -0.586388 -1.78668
65 1 2.33467 -0.422934 -1.40168
29 1 1.62016 0.321992 -1.85394
37 1 2.17897 0.806348 -0.963873
67 1 -2.44088 1.87929 -2.02338
10 1 2.18769 2.45778 -1.33842
30 1 1.78246 1.31086 -2.3407
93 1 -2.45499 -2.34146 -0.417332
34 1 -1.4447 -1.63741 -0.736778
11 1 -1.5357 -1.02965 0.362312
70 1 -2.19098 -0.84439 -0.754982
32 1 -1.95698 -2.41707 0.606046
84 1 -0.895769 -1.90573 0.481134
41 1 0.519399 -1.61312 -0.364769
57 1 -0.396659 -2.13854 -0.683469
15 1 -0.512106 -1.16212 -0.194757
105 1 -0.0049989 -2.42848 0.344177
71 1 0.0711229 -1.42667 0.676312
106 1 1.65972 -2.09756 -0.521162
46 1 2.1504 -2.36152 0.531123
54 1 1.40111 -1.47627 0.380079
55 1 2.53799 -1.42942 0.164642
75 1 1.84046 -1.00761 -0.567407
80 1 -1.28548 -0.378339 -0.510134
59 1 -1.79948 0.114825 0.282517
104 1 -2.10518 0.260744 -0.789339
35 1 -0.159785 -0.241688 -0.825129
73 1 0.465291 -0.568713 0.0936303
87 1 -0.584521 0.353825 0.0516033
95 1 0.631446 0.405772 0.678732
77 1 -0.635751 -0.511385 0.654003
33 1 1.38455 -0.0818853 -0.808865
9 1 1.65952 0.60379 0.0665279
78 1 2.36684 -0.261985 -0.085665
45 1 1.61376 -0.472465 0.736865
61 1 -2.23693 1.76459 -0.840129
94 1 -2.58429 0.914004 -0.00254647
24 1 -1.37748 2.53737 -0.360761
56 1 -1.14036 1.09039 0.648799
79 1 -1.47325 1.01401 -0.367426
90 1 -1.98211 1.80392 0.187677
19 1 -0.956796 2.23223 0.61275
3 1 0.054595 1.39716 0.617969
98 1 2.0855 1.89738 -0.0375926
14 1 1.08516 2.56431 0.366149
102 1 1.30164 1.48614 0.763088
100 1 -1.71626 -1.82671 2.35827
96 1 -2.02881 -1.50259 1.14697
26 1 -1.33559 -2.34629 1.47859
76 1 -1.00442 -1.31253 1.4509
21 1 -2.53009 -2.39924 1.56013
108 1 0.807325 -1.94241 1.1632
8 1 -0.662835 -1.86181 2.30411
16 1 -0.289462 -2.24093 1.36272
99 1 0.142314 -1.27232 1.82637
107 1 0.460726 -2.26234 2.21791
60 1 1.20283 -1.04855 1.64648
31 1 1.63562 -1.97172 2.00416
49 1 2.11472 -1.46061 1.19064
58 1 2.50316 -1.35294 2.12811
48 1 -2.24201 0.26501 1.87337
103 1 -1.39207 0.0895407 2.49799
12 1 -2.31325 -0.435441 0.865566
83 1 -1.85301 -0.763064 1.88835
91 1 -1.3798 0.0174524 1.25208
101 1 0.387284 -0.383414 2.28455
97 1 -0.600648 -0.399668 1.84695
25 1 -0.243378 0.553577 2.23075
92 1 0.308599 -0.382179 1.19704
85 1 -0.400756 0.517895 1.10589
63 1 0.949883 0.685958 2.54189
4 1 2.15119 -0.482891 1.65538
82 1 2.05976 0.529823 1.05682
1 1 1.43869 -0.412953 2.59839
44 1 1.13927 0.178967 1.61119
51 1 2.01237 0.467707 2.31813
47 1 -2.44448 1.33981 2.06257
81 1 -1.3708 0.948861 1.80347
86 1 -1.72173 1.86764 1.31428
64 1 -2.12676 0.921714 0.928018
69 1 -1.91815 2.329 2.30713
2 1 0.450217 2.10826 1.20567
27 1 0.586342 1.05002 1.53736
39 1 -0.466395 1.67817 1.49299
20 1 1.03281 1.95639 2.28645
89 1 1.58632 2.32064 1.30724
13 1 2.43786 1.79266 0.983277
6 1 1.6103 1.27205 1.6815
68 1 2.13361 2.21444 2.29189
ITEM: TIMESTEP
160
ITEM: NUMBER OF ATOMS
108
ITEM: BOX BOUNDS pp pp pp
-2.6000000000000001e+00 2.6000000000000001e+00
-2.6000000000000001e+00 2.6000000000000001e+00
-2.6000000000000001e+00 2.6000000000000001e+00
ITEM: ATOMS id type x y z
7 1 -1.9904 -1.44872 -1.73067
40 1 -1.94038 -2.50904 -1.45849
18 1 -1.14179 -0.997262 -2.4602
42 1 -0.890506 -1.82548 -1.72087
36 1 0.235902 -2.03854 -1.99777
50 1 -0.0884085 -1.1178 -2.26992
66 1 0.0484952 -1.2228 -1.27868
23 1 -2.59516 -2.27904 -2.32971
5 1 0.904287 -1.32567 -2.45599
74 1 1.51184 -2.41788 -2.03479
28 1 2.42977 -1.59913 -1.1095
53 1 1.14421 -1.47197 -1.44613
62 1 1.97037 -1.26999 -2.17794
22 1 -0.935023 -0.860499 -1.45149
38 1 -1.01852 0.287686 -1.36358
43 1 -2.53136 0.629344 -2.0965
88 1 -1.83169 -0.366504 -1.84097
17 1 -2.57428 -0.424116 -2.54846
52 1 -0.54276 -0.198547 -2.18128
72 1 0.794212 -0.603691 -1.75095
65 1 2.36672 -0.360379 -1.36279
29 1 1.62731 0.35456 -1.80536
37 1 2.21392 0.840915 -0.914532
67 1 -2.43054 1.92237 -2.03467
10 1 2.2081 2.47032 -1.36175
30 1 1.75072 1.31708 -2.33733
93 1 -2.45613 -2.31117 -0.443228
34 1 -1.50936 -1.70342 -0.74327
11 1 -1.46934 -1.04367 0.411786
70 1 -2.14861 -0.805219 -0.782531
32 1 -1.97447 -2.44629 0.615866
84 1 -0.881099 -1.91747 0.54467
41 1 0.504443 -1.57106 -0.417604
57 1 -0.370693 -2.16304 -0.680282
15 1 -0.552393 -1.19824 -0.144989
105 1 -0.0458973 -2.42346 0.367256
71 1 0.0653952 -1.42918 0.646751
106 1 1.64001 -2.04241 -0.579772
46 1 2.14378 -2.39409 0.505137
54 1 1.46152 -1.46533 0.377382
55 1 2.49086 -1.4672 0.133208
75 1 1.84481 -0.973324 -0.610303
80 1 -1.29427 -0.352869 -0.509143
59 1 -1.76463 0.134539 0.275743
104 1 -2.07286 0.319272 -0.727363
35 1 -0.143315 -0.255045 -0.794993
73 1 0.529073 -0.616609 0.0933551
87 1 -0.514679 0.376922 0.0542924
95 1 0.591842 0.383811 0.68394
77 1 -0.626673 -0.467998 0.646582
33 1 1.32994 -0.0792205 -0.77596
9 1 1.6715 0.65603 0.0363473
78 1 2.35096 -0.299048 -0.0908348
45 1 1.66598 -0.504825 0.785467
61 1 -2.1861 1.78887 -0.862837
94 1 -2.5794 0.927346 0.0193715
24 1 -1.38725 2.49886 -0.402239
56 1 -1.18642 1.05582 0.619512
79 1 -1.46297 1.04027 -0.33588
90 1 -2.01784 1.8302 0.141947
19 1 -1.00716 2.22229 0.553452
3 1 0.0789823 1.36433 0.631332
98 1 2.03932 1.8363 -0.00608641
14 1 1.03187 2.59575 0.371588
102 1 1.30613 1.50807 0.759753
100 1 -1.72133 -1.8468 2.35021
96 1 -2.03069 -1.50815 1.10117
26 1 -1.32912 -2.35833 1.45383
76 1 -1.06872 -1.30434 1.49488
21 1 -2.46486 -2.41556 1.57351
108 1 0.777236 -1.90941 1.13652
8 1 -0.681851 -1.80651 2.28559
16 1 -0.298902 -2.23616 1.39697
99 1 0.17243 -1.27458 1.8279
107 1 0.44868 -2.26455 2.23537
60 1 1.26302 -1.09541 1.69233
31 1 1.6713 -1.99144 1.99141
49 1 2.16019 -1.5061 1.19334
58 1 2.49886 -1.32712 2.13601
48 1 -2.24677 0.288127 1.922
103 1 -1.39989 0.0587154 2.48723
12 1 -2.31576 -0.442098 0.879854
83 1 -1.89574 -0.783147 1.87789
91 1 -1.39598 0.0116404 1.28996
101 1 0.354006 -0.41445 2.27165
97 1 -0.60326 -0.392838 1.78827
25 1 -0.22553 0.497272 2.25721
92 1 0.286121 -0.38751 1.21027
85 1 -0.450108 0.571944 1.10271
63 1 0.949013 0.703962 2.58599
4 1 2.1933 -0.476858 1.63168
82 1 2.01177 0.575161 1.01998
1 1 1.39619 -0.360566 -2.56095
44 1 1.10795 0.19917 1.64662
51 1 2.00393 0.475353 2.33793
47 1 -2.39763 1.35731 2.11997
81 1 -1.40925 0.943224 1.82735
86 1 -1.67616 1.849 1.31755
64 1 -2.15556 0.94563 0.901172
69 1 -1.84837 2.32789 2.31445
2 1 0.433973 2.10122 1.17156
27 1 0.605451 1.03314 1.5316
39 1 -0.459855 1.74296 1.48277
20 1 1.04355 1.91323 2.30818
89 1 1.60189 2.29704 1.27149
13 1 2.50689 1.85084 0.971604
6 1 1.60189 1.24194 1.68433
68 1 2.15897 2.1808 2.25263
ITEM: TIMESTEP
170
ITEM: NUMBER OF ATOMS
108
ITEM: BOX BOUNDS pp pp pp
-2.6000000000000001e+00 2.6000000000000001e+00
-2.6000000000000001e+00 2.6000000000000001e+00
-2.6000000000000001e+00 2.6000000000000001e+00
ITEM: ATOMS id type x y z
7 1 -1.97045 -1.48104 -1.73043
40 1 -1.92987 -2.54958 -1.49784
18 1 -1.19246 -1.02298 -2.49217
42 1 -0.888413 -1.88439 -1.7187
36 1 0.176051 -2.05927 -1.98537
50 1 -0.127294 -1.09557 -2.30602
66 1 0.0306 -1.21775 -1.27054
23 1 -2.59699 -2.27796 -2.37812
5 1 0.927455 -1.34697 -2.48085
74 1 1.51155 -2.45081 -2.0166
28 1 2.44792 -1.58384 -1.10711
53 1 1.152 -1.5224 -1.44922
62 1 1.97113 -1.26443 -2.16838
22 1 -0.962257 -0.814838 -1.38671
38 1 -1.00935 0.261402 -1.39651
43 1 -2.51741 0.6625 -2.11413
88 1 -1.81858 -0.397141 -1.84451
17 1 -2.60233 -0.404975 -2.55207
52 1 -0.569839 -0.210531 -2.20079
72 1 0.780186 -0.534781 -1.6948
65 1 2.36392 -0.274822 -1.35537
29 1 1.63726 0.386059 -1.74325
37 1 2.22756 0.873513 -0.907198
67 1 -2.41651 1.91794 -2.06386
10 1 2.23427 2.49042 -1.33581
30 1 1.74719 1.362 -2.31294
93 1 -2.43819 -2.32706 -0.454907
34 1 -1.56871 -1.75059 -0.750551
11 1 -1.41765 -1.02674 0.422588
70 1 -2.10418 -0.800794 -0.788528
32 1 -1.99015 -2.46479 0.604792
84 1 -0.931769 -1.91485 0.61682
41 1 0.516098 -1.54471 -0.441121
57 1 -0.360672 -2.18122 -0.68064
15 1 -0.594066 -1.21513 -0.155542
105 1 -0.0427657 -2.46601 0.368939
71 1 0.0398071 -1.38014 0.630103
106 1 1.60781 -2.00489 -0.619086
46 1 2.1314 -2.42697 0.478407
54 1 1.48665 -1.4677 0.360765
55 1 2.47529 -1.47028 0.0988717
75 1 1.78772 -0.957015 -0.64953
80 1 -1.22908 -0.335877 -0.500466
59 1 -1.69122 0.204104 0.242423
104 1 -2.06791 0.348448 -0.707876
35 1 -0.134282 -0.276932 -0.763595
73 1 0.595141 -0.649181 0.0967035
87 1 -0.44912 0.413867 0.0344638
95 1 0.582049 0.407481 0.634385
77 1 -0.6108 -0.432913 0.658096
33 1 1.27115 -0.062056 -0.74797
9 1 1.6114 0.687742 -0.0032971
78 1 2.36732 -0.283322 -0.0683639
45 1 1.69031 -0.523135 0.795073
61 1 -2.15215 1.80626 -0.912207
94 1 -2.52841 0.943279 0.013622
24 1 -1.39621 2.46228 -0.453525
56 1 -1.2156 1.05907 0.625213
79 1 -1.44632 1.0804 -0.349306
90 1 -2.04592 1.84377 0.131686
19 1 -1.04344 2.19182 0.507648
3 1 0.077028 1.2887 0.580564
98 1 1.99515 1.78266 0.0114811
14 1 0.997864 2.62384 0.360167
102 1 1.27275 1.48564 0.679
100 1 -1.75025 -1.83378 2.33861
96 1 -2.03383 -1.53423 1.08242
26 1 -1.33512 -2.36551 1.44533
76 1 -1.11339 -1.28582 1.49974
21 1 -2.41361 -2.41857 1.58509
108 1 0.789985 -1.91388 1.15509
8 1 -0.656793 -1.78908 2.30092
16 1 -0.277129 -2.23537 1.42526
99 1 0.18061 -1.33272 1.80172
107 1 0.455139 -2.27317 2.211
60 1 1.30921 -1.10086 1.73529
31 1 1.69813 -2.05743 2.0061
49 1 2.16595 -1.55015 1.15803
58 1 2.50214 -1.36154 2.16754
48 1 -2.26656 0.311855 1.93795
103 1 -1.40599 0.0288066 2.46038
12 1 -2.34626 -0.496762 0.916041
83 1 -1.90963 -0.765261 1.87229
91 1 -1.43268 0.014044 1.30732
101 1 0.360279 -0.388034 2.30118
97 1 -0.604166 -0.402183 1.7602
25 1 -0.205816 0.464629 2.26735
92 1 0.26304 -0.449671 1.23717
85 1 -0.46579 0.590127 1.15399
63 1 0.925502 0.712279 2.61945
4 1 2.22117 -0.43883 1.67435
82 1 1.98405 0.592967 0.988826
1 1 1.37498 -0.317717 -2.55591
44 1 1.12968 0.149186 1.68683
51 1 1.98093 0.452226 2.3151
47 1 -2.35515 1.36376 2.17082
81 1 -1.42409 0.945633 1.84433
86 1 -1.63583 1.82817 1.31694
64 1 -2.17852 0.947506 0.964574
69 1 -1.77672 2.2955 2.32443
2 1 0.487976 2.17542 1.1785
27 1 0.558042 1.07529 1.53241
39 1 -0.503762 1.79322 1.48441
20 1 1.04373 1.88689 2.3183
89 1 1.61212 2.33235 1.29206
13 1 2.56301 1.90882 0.976405
6 1 1.63564 1.2257 1.75529
68 1 2.15927 2.14673 2.20988
ITEM: TIMESTEP
180
ITEM: NUMBER OF ATOMS
108
ITEM: BOX BOUNDS pp pp pp
-2.6000000000000001e+00 2.6000000000000001e+00
-2.6000000000000001e+00 2.6000000000000001e+00
-2.6000000000000001e+00 2.6000000000000001e+00
ITEM: ATOMS id type x y z
7 1 -1.91489 -1.50089 -1.77655
40 1 -1.89035 -2.55267 -1.53299
18 1 -1.26313 -1.0248 -2.51476
42 1 -0.893455 -1.93583 -1.71823
36 1 0.125532 -2.08658 -1.95456
50 1 -0.149495 -1.10707 -2.34724
66 1 -0.000778657 -1.21952 -1.27222
23 1 2.58717 -2.25769 -2.41776
5 1 0.942594 -1.37762 -2.52247
74 1 1.49112 -2.46631 -2.0366
28 1 2.45115 -1.58584 -1.12658
53 1 1.15657 -1.57914 -1.44538
62 1 1.96268 -1.2581 -2.12347
22 1 -0.985685 -0.804392 -1.32762
38 1 -1.01927 0.25589 -1.40261
43 1 -2.49378 0.693575 -2.12056
88 1 -1.81285 -0.414604 -1.82666
17 1 2.56048 -0.383944 -2.51719
52 1 -0.572245 -0.194609 -2.21372
72 1 0.754111 -0.449333 -1.63533
65 1 2.3617 -0.193551 -1.35121
29 1 1.63528 0.425023 -1.69275
37 1 2.22117 0.908524 -0.93725
67 1 -2.41421 1.87514 -2.10074
10 1 2.26252 2.5108 -1.28207
30 1 1.77683 1.4078 -2.27331
93 1 -2.41235 -2.38481 -0.448096
34 1 -1.61335 -1.77134 -0.75944
11 1 -1.42025 -0.974669 0.418152
70 1 -2.06869 -0.804245 -0.787791
32 1 -1.99752 -2.45711 0.579236
84 1 -0.984785 -1.9162 0.66066
41 1 0.553744 -1.54711 -0.434094
57 1 -0.363233 -2.19156 -0.684163
15 1 -0.623462 -1.22515 -0.227875
105 1 -0.0475241 -2.51309 0.366087
71 1 0.014609 -1.33468 0.643495
106 1 1.57542 -1.99993 -0.627529
46 1 2.11383 -2.44976 0.440734
54 1 1.45474 -1.48395 0.329759
55 1 2.49965 -1.44551 0.0562825
75 1 1.70657 -0.940086 -0.676631
80 1 -1.12603 -0.314736 -0.46888
59 1 -1.63171 0.257717 0.252764
104 1 -2.07667 0.332842 -0.745621
35 1 -0.123967 -0.304333 -0.731404
73 1 0.67046 -0.650474 0.107029
87 1 -0.394154 0.460864 0.011893
95 1 0.599569 0.401017 0.581797
77 1 -0.592089 -0.392537 0.669247
33 1 1.20354 -0.0299819 -0.724783
9 1 1.53854 0.709481 -0.0495442
78 1 2.39771 -0.244146 -0.0428276
45 1 1.69634 -0.528807 0.785055
61 1 -2.13829 1.79977 -0.968666
94 1 -2.48539 0.937596 0.0128052
24 1 -1.39634 2.42301 -0.513208
56 1 -1.21452 1.09594 0.668936
79 1 -1.41767 1.14284 -0.407024
90 1 -2.05804 1.84241 0.12303
19 1 -1.0588 2.15392 0.474131
3 1 0.0551703 1.26203 0.515573
98 1 1.97529 1.74451 0.00569492
14 1 1.00545 -2.55084 0.324418
102 1 1.20755 1.44763 0.623903
100 1 -1.77695 -1.81673 2.31358
96 1 -2.02434 -1.56344 1.07833
26 1 -1.34578 -2.37634 1.47338
76 1 -1.11978 -1.27432 1.48548
21 1 -2.38552 -2.41098 1.61151
108 1 0.828881 -1.93107 1.1899
8 1 -0.619109 -1.82115 2.32935
16 1 -0.247004 -2.24715 1.42771
99 1 0.179167 -1.3778 1.78327
107 1 0.486526 -2.29616 2.17837
60 1 1.34927 -1.0796 1.76856
31 1 1.71486 -2.13588 2.04362
49 1 2.13314 -1.5885 1.13101
58 1 2.50166 -1.422 2.17726
48 1 -2.2879 0.338742 1.92505
103 1 -1.418 0.0071986 2.41825
12 1 -2.34604 -0.549977 0.899353
83 1 -1.92399 -0.726093 1.8809
91 1 -1.48029 0.026059 1.29378
101 1 0.395254 -0.365624 2.34167
97 1 -0.614798 -0.419865 1.779
25 1 -0.194445 0.476328 2.25913
92 1 0.292008 -0.503522 1.23771
85 1 -0.463422 0.577921 1.23835
63 1 0.892442 0.714652 -2.55987
4 1 2.19978 -0.399451 1.75754
82 1 1.96612 0.589643 0.962147
1 1 1.36916 -0.30865 -2.54991
44 1 1.16052 0.0856026 1.70578
51 1 1.95822 0.425069 2.30227
47 1 -2.32089 1.35775 2.2111
81 1 -1.40323 0.947974 1.85807
86 1 -1.60614 1.81456 1.31677
64 1 -2.20335 0.927925 1.08472
69 1 -1.70518 2.25283 2.33613
2 1 0.549869 2.2477 1.20552
27 1 0.500309 1.12758 1.54211
39 1 -0.558212 1.83736 1.47687
20 1 1.02173 1.88867 2.31509
89 1 1.60429 2.36852 1.31969
13 1 2.58477 1.95746 1.00505
6 1 1.67001 1.2433 1.809
68 1 2.14543 2.11801 2.17318
ITEM: TIMESTEP
190
ITEM: NUMBER OF ATOMS
108
ITEM: BOX BOUNDS pp pp pp
-2.6000000000000001e+00 2.6000000000000001e+00
-2.6000000000000001e+00 2.6000000000000001e+00
-2.6000000000000001e+00 2.6000000000000001e+00
ITEM: ATOMS id type x y z
7 1 -1.86025 -1.51192 -1.8399
40 1 -1.83833 -2.53354 -1.57389
18 1 -1.29919 -1.00297 -2.52526
42 1 -0.914465 -1.9699 -1.71281
36 1 0.100849 -2.11453 -1.92988
50 1 -0.143197 -1.12872 -2.36731
66 1 -0.0305619 -1.23398 -1.28447
23 1 2.56144 -2.26201 -2.42639
5 1 0.939265 -1.41595 -2.54855
74 1 1.47149 -2.47596 -2.0775
28 1 2.44899 -1.59384 -1.14984
53 1 1.13391 -1.61257 -1.46661
62 1 1.95522 -1.25019 -2.06616
22 1 -0.999336 -0.850007 -1.30376
38 1 -1.04765 0.274921 -1.38077
43 1 -2.47335 0.715535 -2.11933
88 1 -1.82573 -0.408451 -1.8018
17 1 2.53802 -0.37048 -2.42756
52 1 -0.56156 -0.175545 -2.22132
72 1 0.722699 -0.375159 -1.5859
65 1 2.37981 -0.14352 -1.33803
29 1 1.59892 0.476262 -1.67712
37 1 2.21418 0.952105 -0.973501
67 1 -2.42362 1.84087 -2.1107
10 1 2.27208 2.52495 -1.25084
30 1 1.81824 1.43988 -2.22963
93 1 -2.38861 -2.45516 -0.416023
34 1 -1.63478 -1.77101 -0.770275
11 1 -1.45947 -0.906287 0.406363
70 1 -2.03718 -0.795935 -0.782471
32 1 -1.99098 -2.43263 0.550209
84 1 -1.01333 -1.917 0.645492
41 1 0.598189 -1.5692 -0.414565
57 1 -0.372663 -2.19694 -0.692177
15 1 -0.636665 -1.24273 -0.320503
105 1 -0.0718496 -2.55128 0.365484
71 1 -0.0155512 -1.31928 0.662344
106 1 1.56561 -2.03548 -0.595797
46 1 2.09426 -2.45725 0.392822
54 1 1.39294 -1.50374 0.290711
55 1 2.53966 -1.41012 0.0111739
75 1 1.63244 -0.926615 -0.694136
80 1 -1.05108 -0.268397 -0.393959
59 1 -1.59496 0.286976 0.269183
104 1 -2.06962 0.294668 -0.806265
35 1 -0.0838587 -0.332439 -0.703517
73 1 0.752408 -0.628708 0.124834
87 1 -0.362853 0.494906 -0.0139317
95 1 0.639794 0.360777 0.54134
77 1 -0.575697 -0.343032 0.672207
33 1 1.12448 0.00828292 -0.708396
9 1 1.48348 0.724811 -0.094568
78 1 2.42837 -0.196443 -0.0314959
45 1 1.69635 -0.52872 0.77699
61 1 -2.14686 1.76443 -1.01998
94 1 -2.46507 0.894355 0.031991
24 1 -1.3783 2.38235 -0.573677
56 1 -1.18743 1.13919 0.71617
79 1 -1.38162 1.20515 -0.469345
90 1 -2.05634 1.83887 0.104408
19 1 -1.05422 2.12935 0.444794
3 1 0.0189426 1.29698 0.46756
98 1 1.98565 1.72135 -0.0180723
14 1 1.04361 -2.52613 0.271572
102 1 1.11221 1.41629 0.615959
100 1 -1.77014 -1.82626 2.27529
96 1 -2.01792 -1.57364 1.08775
26 1 -1.34241 -2.39446 1.53362
76 1 -1.09478 -1.27345 1.48121
21 1 -2.39103 -2.39906 1.6573
108 1 0.895367 -1.93598 1.21653
8 1 -0.614625 -1.89996 2.34917
16 1 -0.239519 -2.27603 1.39479
99 1 0.173473 -1.37621 1.79113
107 1 0.542147 -2.33513 2.16718
60 1 1.38542 -1.05262 1.78073
31 1 1.71028 -2.17193 2.10971
49 1 2.08644 -1.62442 1.12214
58 1 2.47277 -1.44245 2.14998
48 1 -2.30385 0.342758 1.92969
103 1 -1.42804 0.00909602 2.38532
12 1 -2.34904 -0.594391 0.869343
83 1 -1.96562 -0.706395 1.8923
91 1 -1.51122 0.0420175 1.26019
101 1 0.422319 -0.364186 2.37157
97 1 -0.620577 -0.42995 1.82945
25 1 -0.187297 0.523888 2.25238
92 1 0.364521 -0.52101 1.22839
85 1 -0.45936 0.556956 1.30648
63 1 0.865189 0.713677 -2.55227
4 1 2.15099 -0.401432 1.77869
82 1 1.94684 0.57565 0.939886
1 1 1.38587 -0.350584 -2.50237
44 1 1.17951 0.0318325 1.68435
51 1 1.94897 0.439941 2.33972
47 1 -2.29694 1.34122 2.21768
81 1 -1.34652 0.943989 1.87263
86 1 -1.61504 1.8221 1.32587
64 1 -2.22655 0.92502 1.17412
69 1 -1.63897 2.21642 2.35264
2 1 0.591264 2.28136 1.24539
27 1 0.450115 1.17693 1.5539
39 1 -0.595409 1.87763 1.45992
20 1 0.985428 1.91287 2.30567
89 1 1.58662 2.38067 1.30639
13 1 2.57432 1.97999 1.04714
6 1 1.69063 1.27954 1.81275
68 1 2.15027 2.09381 2.16166
ITEM: TIMESTEP
200
ITEM: NUMBER OF ATOMS
108
ITEM: BOX BOUNDS pp pp pp
-2.6000000000000001e+00 2.6000000000000001e+00
-2.6000000000000001e+00 2.6000000000000001e+00
-2.6000000000000001e+00 2.6000000000000001e+00
ITEM: ATOMS id type x y z
7 1 -1.84635 -1.51431 -1.88845
40 1 -1.80188 -2.52761 -1.61384
18 1 -1.27514 -0.963791 -2.54261
42 1 -0.932712 -1.9868 -1.70026
36 1 0.106483 -2.14335 -1.91746
50 1 -0.129666 -1.1498 -2.36974
66 1 -0.0371439 -1.26478 -1.29745
23 1 2.54336 -2.29123 -2.39853
5 1 0.924946 -1.45973 -2.55611
74 1 1.45431 -2.48876 -2.11851
28 1 2.45366 -1.60222 -1.16421
53 1 1.08897 -1.6324 -1.49195
62 1 1.95313 -1.24374 -2.0203
22 1 -1.02507 -0.909544 -1.29578
38 1 -1.08481 0.297607 -1.34131
43 1 -2.45746 0.722906 -2.10451
88 1 -1.83731 -0.381909 -1.76894
17 1 2.51311 -0.362691 -2.34183
52 1 -0.546147 -0.164334 -2.22013
72 1 0.679062 -0.322242 -1.56715
65 1 2.3793 -0.12667 -1.33157
29 1 1.53754 0.520885 -1.69231
37 1 2.22212 1.00366 -0.997343
67 1 -2.42237 1.8443 -2.08328
10 1 2.26102 2.52866 -1.26026
30 1 1.84021 1.4545 -2.1929
93 1 -2.36827 -2.51471 -0.386258
34 1 -1.63697 -1.76815 -0.782277
11 1 -1.49343 -0.845105 0.384286
70 1 -2.0105 -0.77777 -0.769346
32 1 -1.97192 -2.41631 0.539104
84 1 -1.02692 -1.91947 0.595142
41 1 0.617925 -1.59429 -0.405131
57 1 -0.383104 -2.20912 -0.707923
15 1 -0.647308 -1.26118 -0.396125
105 1 -0.0950857 -2.58373 0.36098
71 1 -0.0521683 -1.33074 0.671193
106 1 1.58689 -2.09445 -0.564697
46 1 2.08746 -2.45145 0.348021
54 1 1.34726 -1.50686 0.277578
55 1 2.57935 -1.37544 -0.0300252
75 1 1.56794 -0.923607 -0.706547
80 1 -1.00966 -0.224708 -0.329252
59 1 -1.58664 0.31723 0.269909
104 1 -2.02438 0.276179 -0.849954
35 1 -0.00342104 -0.360901 -0.682242
73 1 0.827923 -0.609419 0.142091
87 1 -0.353256 0.505016 -0.0488702
95 1 0.679523 0.325575 0.51667
77 1 -0.561645 -0.295355 0.673655
33 1 1.03595 0.0368998 -0.697317
9 1 1.46357 0.754429 -0.12207
78 1 2.45356 -0.14776 -0.0382474
45 1 1.69255 -0.531073 0.769858
61 1 -2.17192 1.71806 -1.06598
94 1 -2.4646 0.831948 0.0567183
24 1 -1.34482 2.34609 -0.632852
56 1 -1.14005 1.14797 0.751853
79 1 -1.34153 1.25171 -0.520114
90 1 -2.05258 1.82629 0.0899068
19 1 -1.03934 2.13451 0.414908
3 1 -0.017319 1.37538 0.454917
98 1 2.0093 1.70452 -0.0428753
14 1 1.06623 -2.51565 0.223833
102 1 1.01653 1.40071 0.637214
100 1 -1.74582 -1.83381 2.25656
96 1 -2.02056 -1.56246 1.11884
26 1 -1.30187 -2.40623 1.56615
76 1 -1.05775 -1.28339 1.48977
21 1 -2.42738 -2.39089 1.70408
108 1 0.979869 -1.91025 1.23304
8 1 -0.637702 -2.00344 2.3594
16 1 -0.25038 -2.29452 1.35268
99 1 0.163448 -1.35857 1.81727
107 1 0.595084 -2.35674 2.17304
60 1 1.38523 -1.05687 1.7753
31 1 1.67437 -2.16434 2.17059
49 1 2.03897 -1.66089 1.12016
58 1 2.42356 -1.41515 2.10368
48 1 -2.32672 0.284897 1.9942
103 1 -1.42391 0.0374253 2.38344
12 1 -2.37909 -0.619068 0.851405
83 1 -2.02733 -0.720019 1.88939
91 1 -1.5201 0.0484918 1.24282
101 1 0.424992 -0.367491 2.38376
97 1 -0.602247 -0.426863 1.8912
25 1 -0.168224 0.582222 2.29339
92 1 0.44787 -0.508637 1.21524
85 1 -0.46695 0.537143 1.30573
63 1 0.850573 0.707527 -2.55713
4 1 2.14356 -0.413945 1.76454
82 1 1.925 0.557 0.91968
1 1 1.42938 -0.418162 -2.42853
44 1 1.19139 0.00434069 1.64764
51 1 1.93336 0.490419 2.41722
47 1 -2.27621 1.32368 2.18354
81 1 -1.27284 0.94454 1.88268
86 1 -1.6744 1.84912 1.34853
64 1 -2.24027 0.975344 1.17351
69 1 -1.58533 2.18292 2.38552
2 1 0.583584 2.26112 1.27493
27 1 0.40761 1.22456 1.56336
39 1 -0.603384 1.90895 1.43849
20 1 0.960116 1.92908 2.29643
89 1 1.59978 2.38268 1.26685
13 1 2.54218 1.97928 1.07993
6 1 1.68612 1.2935 1.76695
68 1 2.18732 2.09293 2.18078
ITEM: TIMESTEP
210
ITEM: NUMBER OF ATOMS
108
ITEM: BOX BOUNDS pp pp pp
-2.6000000000000001e+00 2.6000000000000001e+00
-2.6000000000000001e+00 2.6000000000000001e+00
-2.6000000000000001e+00 2.6000000000000001e+00
ITEM: ATOMS id type x y z
7 1 -1.87813 -1.50041 -1.91746
40 1 -1.80245 -2.55345 -1.64616
18 1 -1.21128 -0.926083 -2.56801
42 1 -0.917616 -1.98182 -1.6837
36 1 0.133278 -2.17402 -1.919
50 1 -0.131039 -1.17975 -2.36171
66 1 -0.0186415 -1.30259 -1.30753
23 1 2.54005 -2.31229 -2.34907
5 1 0.910992 -1.4916 -2.54657
74 1 1.42779 -2.52069 -2.11465
28 1 2.47315 -1.6112 -1.15807
53 1 1.03355 -1.64823 -1.50167
62 1 1.95744 -1.25656 -1.9909
22 1 -1.06974 -0.956152 -1.31353
38 1 -1.10006 0.316259 -1.30344
43 1 -2.44016 0.720629 -2.07425
88 1 -1.82916 -0.347666 -1.73712
17 1 2.48229 -0.359778 -2.3071
52 1 -0.528226 -0.160734 -2.20068
72 1 0.620641 -0.29666 -1.60131
65 1 2.33854 -0.125498 -1.31717
29 1 1.47284 0.546626 -1.71346
37 1 2.23162 1.04494 -1.01329
67 1 -2.39824 1.87483 -2.0609
10 1 2.24393 2.52171 -1.29832
30 1 1.83072 1.45776 -2.16629
93 1 -2.35701 -2.55002 -0.410472
34 1 -1.62834 -1.77532 -0.794909
11 1 -1.50974 -0.804755 0.35753
70 1 -1.99 -0.759781 -0.744495
32 1 -1.9486 -2.41644 0.565082
84 1 -1.0274 -1.91659 0.533244
41 1 0.592563 -1.61808 -0.426358
57 1 -0.389495 -2.23886 -0.731936
15 1 -0.659643 -1.26835 -0.423447
105 1 -0.097799 -2.61047 0.340607
71 1 -0.0887687 -1.35174 0.675982
106 1 1.63704 -2.14585 -0.572584
46 1 2.10468 -2.43722 0.324388
54 1 1.35447 -1.49457 0.307425
55 1 2.61476 -1.34733 -0.0634803
75 1 1.51025 -0.93124 -0.717739
80 1 -0.976588 -0.226404 -0.328298
59 1 -1.60055 0.361822 0.260661
104 1 -1.96641 0.296327 -0.855936
35 1 0.0793797 -0.397165 -0.655692
73 1 0.878053 -0.61455 0.140356
87 1 -0.333473 0.529285 -0.0760255
95 1 0.707866 0.3257 0.512738
77 1 -0.548469 -0.272366 0.672536
33 1 0.957436 0.0650836 -0.676259
9 1 1.47772 0.801115 -0.130274
78 1 2.46375 -0.134848 -0.0648645
45 1 1.6931 -0.539163 0.767316
61 1 -2.19089 1.68048 -1.08805
94 1 -2.48464 0.81202 0.0782538
24 1 -1.30933 2.3225 -0.690679
56 1 -1.09408 1.14336 0.780525
79 1 -1.29883 1.27374 -0.556555
90 1 -2.04483 1.78482 0.093276
19 1 -1.03462 2.15541 0.388458
3 1 -0.0744496 1.47268 0.465009
98 1 2.04284 1.69617 -0.063544
14 1 1.03957 -2.53716 0.205261
102 1 0.950343 1.39643 0.673673
100 1 -1.73329 -1.81085 2.2739
96 1 -2.02639 -1.54738 1.16879
26 1 -1.24382 -2.41351 1.54626
76 1 -1.01401 -1.30316 1.50377
21 1 -2.46811 -2.37791 1.72989
108 1 1.04255 -1.8856 1.24557
8 1 -0.661636 -2.10326 2.37228
16 1 -0.259572 -2.27366 1.32428
99 1 0.151281 -1.34482 1.83801
107 1 0.61079 -2.32962 2.17821
60 1 1.34143 -1.08949 1.76802
31 1 1.63512 -2.12848 2.16451
49 1 2.0106 -1.69683 1.116
58 1 2.36942 -1.38595 2.07269
48 1 -2.35443 0.244076 2.05755
103 1 -1.40566 0.0725671 2.41111
12 1 -2.44297 -0.618929 0.850778
83 1 -2.05864 -0.750763 1.88184
91 1 -1.5183 0.0409411 1.26345
101 1 0.42924 -0.36584 2.38371
97 1 -0.560581 -0.415759 1.94678
25 1 -0.153235 0.641036 2.35243
92 1 0.49642 -0.513917 1.18311
85 1 -0.460735 0.521067 1.27925
63 1 0.85153 0.698053 -2.57287
4 1 2.16942 -0.409039 1.7447
82 1 1.90411 0.537329 0.898798
1 1 1.46217 -0.473896 -2.36408
44 1 1.22285 0.0292927 1.63297
51 1 1.90193 0.538841 2.50128
47 1 -2.25677 1.31363 2.14611
81 1 -1.20405 0.967385 1.88301
86 1 -1.72946 1.88057 1.37316
64 1 -2.25096 1.00903 1.13594
69 1 -1.54485 2.1538 2.43349
2 1 0.547496 2.22065 1.28303
27 1 0.366149 1.26047 1.57416
39 1 -0.598538 1.91866 1.41333
20 1 0.968116 1.89718 2.2931
89 1 1.62268 2.39334 1.2338
13 1 2.49697 1.96405 1.0871
6 1 1.66595 1.29079 1.69209
68 1 2.21898 2.09698 2.21842
ITEM: TIMESTEP
220
ITEM: NUMBER OF ATOMS
108
ITEM: BOX BOUNDS pp pp pp
-2.6000000000000001e+00 2.6000000000000001e+00
-2.6000000000000001e+00 2.6000000000000001e+00
-2.6000000000000001e+00 2.6000000000000001e+00
ITEM: ATOMS id type x y z
7 1 -1.9302 -1.47161 -1.92745
40 1 -1.81778 -2.58061 -1.66442
18 1 -1.1464 -0.917416 -2.58295
42 1 -0.885558 -1.96227 -1.67169
36 1 0.170976 -2.20976 -1.93658
50 1 -0.149355 -1.21313 -2.34608
66 1 0.00252372 -1.33264 -1.3085
23 1 2.54097 -2.30268 -2.29478
5 1 0.90462 -1.48251 -2.51179
74 1 1.39583 -2.56497 -2.08395
28 1 2.51059 -1.6249 -1.12861
53 1 0.985043 -1.6619 -1.48956
62 1 1.97479 -1.31479 -1.96915
22 1 -1.11165 -0.986501 -1.35841
38 1 -1.04322 0.334868 -1.29405
43 1 -2.419 0.715863 -2.03146
88 1 -1.81887 -0.310172 -1.72506
17 1 2.47493 -0.363191 -2.31956
52 1 -0.501356 -0.160547 -2.15567
72 1 0.556847 -0.288789 -1.67126
65 1 2.28222 -0.121907 -1.27411
29 1 1.41267 0.548804 -1.70873
37 1 2.21165 1.05009 -1.02599
67 1 -2.3772 1.89509 -2.07975
10 1 2.23106 2.50168 -1.35629
30 1 1.80862 1.47442 -2.14006
93 1 -2.34359 -2.56772 -0.472418
34 1 -1.61607 -1.79374 -0.807536
11 1 -1.52714 -0.785303 0.34059
70 1 -1.97135 -0.741209 -0.71305
32 1 -1.94227 -2.4377 0.609458
84 1 -1.01502 -1.90352 0.468366
41 1 0.551644 -1.64018 -0.454116
57 1 -0.389049 -2.27658 -0.757126
15 1 -0.667233 -1.27355 -0.403757
105 1 -0.0734476 2.57986 0.306432
71 1 -0.118385 -1.36994 0.678959
106 1 1.69046 -2.1714 -0.607892
46 1 2.13679 -2.42318 0.326476
54 1 1.3961 -1.50214 0.332321
55 1 -2.5591 -1.33125 -0.0811066
75 1 1.45961 -0.947193 -0.732812
80 1 -0.95397 -0.254318 -0.379984
59 1 -1.6011 0.395798 0.248005
104 1 -1.9708 0.343797 -0.812253
35 1 0.105866 -0.468235 -0.617718
73 1 0.883295 -0.630836 0.112874
87 1 -0.297157 0.576175 -0.0886294
95 1 0.726727 0.355827 0.523533
77 1 -0.537958 -0.295227 0.652927
33 1 0.934102 0.123285 -0.655894
9 1 1.50781 0.843871 -0.128598
78 1 2.45551 -0.178753 -0.112819
45 1 1.69413 -0.55114 0.777537
61 1 -2.16999 1.66996 -1.0676
94 1 -2.53792 0.853866 0.0888537
24 1 -1.28268 2.31915 -0.745169
56 1 -1.07708 1.15603 0.793845
79 1 -1.25636 1.26374 -0.577837
90 1 -2.02576 1.73456 0.114115
19 1 -1.05382 2.17246 0.368863
3 1 -0.149755 1.56995 0.486523
98 1 2.08797 1.71117 -0.0795544
14 1 0.988457 -2.57367 0.213788
102 1 0.923292 1.39661 0.711435
100 1 -1.73041 -1.7819 2.29123
96 1 -2.03006 -1.541 1.21738
26 1 -1.22496 -2.4089 1.50207
76 1 -0.964064 -1.32726 1.52016
21 1 -2.49487 -2.35054 1.72969
108 1 1.01721 -1.91132 1.24428
8 1 -0.671268 -2.18849 2.39821
16 1 -0.238545 -2.2156 1.30645
99 1 0.141122 -1.33602 1.83881
107 1 0.577127 -2.31025 2.16516
60 1 1.29604 -1.07914 1.77812
31 1 1.61943 -2.09597 2.11532
49 1 2.04687 -1.72242 1.11166
58 1 2.31837 -1.37563 2.07474
48 1 -2.36563 0.260871 2.11539
103 1 -1.38224 0.11416 2.45469
12 1 -2.50187 -0.60887 0.855173
83 1 -2.02669 -0.774372 1.88606
91 1 -1.51251 0.0272139 1.30346
101 1 0.451288 -0.3614 2.38094
97 1 -0.507242 -0.398154 1.97416
25 1 -0.165155 0.69212 2.39841
92 1 0.509846 -0.546967 1.14031
85 1 -0.412642 0.514273 1.28293
63 1 0.8614 0.689978 -2.60222
4 1 2.15754 -0.411253 1.71765
82 1 1.88938 0.519343 0.872711
1 1 1.43884 -0.488629 -2.32938
44 1 1.26406 0.0956924 1.64516
51 1 1.87703 0.566396 2.55599
47 1 -2.24005 1.30726 2.12912
81 1 -1.14927 1.01433 1.87931
86 1 -1.74692 1.91354 1.3942
64 1 -2.25589 0.996634 1.08132
69 1 -1.5121 2.13614 2.48137
2 1 0.513935 2.21113 1.2711
27 1 0.315995 1.25743 1.59796
39 1 -0.588411 1.9084 1.3874
20 1 0.998292 1.84377 2.29354
89 1 1.59535 2.42582 1.22186
13 1 2.46647 1.93214 1.06382
6 1 1.64538 1.28601 1.61032
68 1 2.21352 2.07895 2.25987
ITEM: TIMESTEP
230
ITEM: NUMBER OF ATOMS
108
ITEM: BOX BOUNDS pp pp pp
-2.6000000000000001e+00 2.6000000000000001e+00
-2.6000000000000001e+00 2.6000000000000001e+00
-2.6000000000000001e+00 2.6000000000000001e+00
ITEM: ATOMS id type x y z
7 1 -1.98924 -1.43352 -1.91931
40 1 -1.8149 -2.57189 -1.65773
18 1 -1.11071 -0.934515 -2.58256
42 1 -0.854957 -1.94992 -1.67652
36 1 0.208123 -2.25047 -1.96893
50 1 -0.168716 -1.24654 -2.33086
66 1 -0.00435201 -1.34626 -1.30287
23 1 2.53755 -2.25692 -2.26576
5 1 0.903858 -1.44504 -2.47152
74 1 1.36404 2.59556 -2.06358
28 1 2.56172 -1.6464 -1.08518
53 1 0.970291 -1.67848 -1.45379
62 1 1.99141 -1.39347 -1.96308
22 1 -1.12982 -0.996738 -1.40391
38 1 -0.958545 0.355037 -1.29801
43 1 -2.39826 0.710486 -1.98056
88 1 -1.82041 -0.261771 -1.72967
17 1 2.48242 -0.381182 -2.34148
52 1 -0.465547 -0.16436 -2.09647
72 1 0.492381 -0.290103 -1.74318
65 1 2.22584 -0.116061 -1.22303